 Gaussian 09, Revision D.01,
 Gaussian 09:  EM64L-G09RevD.01 24-Apr-2013

 --------------------------------------------------
 # Opt(maxcycle=100) Freq B3LYP/6-31G(d,p) em=GD3BJ
 --------------------------------------------------

 ---------------------
 Calculated H2O Energy
 ---------------------
 Symbolic Z-matrix:
 Charge =  0 Multiplicity = 1

 SCF Done:  E(RB3LYP) =  -76.4195027882     A.U. after    9 cycles
 SCF Done:  E(RB3LYP) =  -76.4202906761     A.U. after    9 cycles
 SCF Done:  E(RB3LYP) =  -76.4203105307     A.U. after    7 cycles
 Optimization completed.
    -- Stationary point found.
 Normal termination of Gaussian 09 at Thu Nov  2 15:35:52 2023.

 ----------------------------------------------------------------------
 #N Geom=AllCheck Guess=TCheck SCRF=Check GenChk RB3LYP/6-31G(d,p) Freq
 ----------------------------------------------------------------------

 Structure from the checkpoint file:  "H2O.chk"
 ---------------------
 Calculated H2O Energy
 ---------------------
 Charge =  0 Multiplicity = 1

                         Standard orientation:
 ---------------------------------------------------------------------
 Center     Atomic      Atomic             Coordinates (Angstroms)
 Number     Number       Type             X           Y           Z
 ---------------------------------------------------------------------
      1          8           0        0.000000    0.000000    0.119190
      2          1           0        0.000000    0.759281   -0.476760
      3          1           0        0.000000   -0.759281   -0.476760
 ---------------------------------------------------------------------

 SCF Done:  E(RB3LYP) =  -76.4203105307     A.U. after    1 cycles

 The electronic state is 1-A1.
 Alpha  occ. eigenvalues --  -19.13799  -0.99735  -0.51503  -0.37102  -0.29197
 Alpha virt. eigenvalues --    0.06537   0.15126   0.75690   0.80557   0.89135
 Alpha virt. eigenvalues --    0.89354   1.01557   1.17538   1.52951   1.53769
 Alpha virt. eigenvalues --    1.64365   2.23882   2.26828   2.45027   2.64112

 Mulliken charges:
               1
     1  O   -0.609845
     2  H    0.304923
     3  H    0.304923
 Sum of Mulliken charges =   0.00000

 Dipole moment (field-independent basis, Debye):
    X=              0.0000    Y=              0.0000    Z=             -2.0428  Tot=              2.0428
 Quadrupole moment (field-independent basis, Debye-Ang):
   XX=             -7.1376   YY=             -4.2970   ZZ=             -5.9758
   XY=              0.0000   XZ=              0.0000   YZ=              0.0000

  Exact polarizability:   2.994   0.000   7.508   0.000   0.000   5.558
 Approx polarizability:   3.295   0.000   9.174   0.000   0.000   6.978

                      1                      2                      3
                     A1                     A1                     B2
 Frequencies --   1664.9890              3800.8766              3914.1367
 Red. masses --      1.0827                 1.0452                 1.0811
 Frc consts  --      1.7683                 8.8962                 9.7586
 IR Inten    --     70.3459                 1.6436                20.2384

 - Thermochemistry -
 -------------------
 Temperature   298.150 Kelvin.  Pressure   1.00000 Atm.
 Atom     1 has atomic number  8 and mass  15.99491

 Molecular mass:    18.01056 amu.
 Principal axes and moments of inertia in atomic units:
                           1         2         3
     Eigenvalues --     2.27032   4.14971   6.42003
           X            0.00000   0.00000   1.00000
           Y            1.00000   0.00000   0.00000
           Z            0.00000   1.00000   0.00000
 This molecule is an asymmetric top.
 Rotational symmetry number  2.
 Rotational temperatures (Kelvin)     38.15050    20.87226    13.49119
 Rotational constants (GHZ):         794.92844   434.90786   281.11109
 Zero-point vibrational energy      56104.9 (Joules/Mol)
                                   13.40939 (Kcal/Mol)
 Vibrational temperatures:   2395.54  5468.61  5631.56
          (Kelvin)

 Zero-point correction=                           0.021369 (Hartree/Particle)
 Thermal correction to Energy=                    0.024204
 Thermal correction to Enthalpy=                  0.025148
 Thermal correction to Gibbs Free Energy=         0.003712
 Sum of electronic and zero-point Energies=            -76.398941
 Sum of electronic and thermal Energies=               -76.396106
 Sum of electronic and thermal Enthalpies=             -76.395162
 Sum of electronic and thermal Free Energies=          -76.416598

                     E (Thermal)             CV                S
                      KCal/Mol        Cal/Mol-Kelvin    Cal/Mol-Kelvin
 Total                   15.188              6.003             45.116
 Electronic               0.000              0.000              0.000
 Translational            0.889              2.981             34.608
 Rotational               0.889              2.981             10.502
 Vibrational             13.411              0.042              0.006

 Optimization completed.
    -- Stationary point found.
 Normal termination of Gaussian 09 at Thu Nov  2 15:35:56 2023.
