 Gaussian 09, Revision D.01,
 Gaussian 09:  EM64L-G09RevD.01 24-Apr-2013

 --------------------------------------------------
 # Opt(maxcycle=100) Freq B3LYP/6-31G(d,p) em=GD3BJ
 --------------------------------------------------

 --------------------
 Calculated HF Energy
 --------------------
 Symbolic Z-matrix:
 Charge =  0 Multiplicity = 1

 SCF Done:  E(RB3LYP) =  -100.425147892     A.U. after    9 cycles
 SCF Done:  E(RB3LYP) =  -100.427629722     A.U. after    9 cycles
 SCF Done:  E(RB3LYP) =  -100.427641598     A.U. after    6 cycles
 Optimization completed.
    -- Stationary point found.
 Normal termination of Gaussian 09 at Thu Nov  2 15:31:10 2023.

 ----------------------------------------------------------------------
 #N Geom=AllCheck Guess=TCheck SCRF=Check GenChk RB3LYP/6-31G(d,p) Freq
 ----------------------------------------------------------------------

 Structure from the checkpoint file:  "HF.chk"
 --------------------
 Calculated HF Energy
 --------------------
 Charge =  0 Multiplicity = 1

                         Standard orientation:
 ---------------------------------------------------------------------
 Center     Atomic      Atomic             Coordinates (Angstroms)
 Number     Number       Type             X           Y           Z
 ---------------------------------------------------------------------
      1          9           0        0.000000    0.000000    0.092540
      2          1           0        0.000000    0.000000   -0.832859
 ---------------------------------------------------------------------

 SCF Done:  E(RB3LYP) =  -100.427641598     A.U. after    1 cycles

 The electronic state is 1-SG.
 Alpha  occ. eigenvalues --  -24.66310  -1.16883  -0.51803  -0.37691  -0.37691
 Alpha virt. eigenvalues --    0.06685   0.76449   1.08387   1.17509   1.17509
 Alpha virt. eigenvalues --    1.42688   1.61934   1.61934   1.86997   1.86997
 Alpha virt. eigenvalues --    2.49918   2.71682   2.71682   3.62864   3.71521

 Mulliken charges:
               1
     1  F   -0.358079
     2  H    0.358079
 Sum of Mulliken charges =   0.00000

 Dipole moment (field-independent basis, Debye):
    X=              0.0000    Y=              0.0000    Z=             -1.8277  Tot=              1.8277
 Quadrupole moment (field-independent basis, Debye-Ang):
   XX=             -5.3698   YY=             -5.3698   ZZ=             -3.4534
   XY=              0.0000   XZ=              0.0000   YZ=              0.0000

  Exact polarizability:   2.016   0.000   2.016   0.000   0.000   4.645
 Approx polarizability:   2.263   0.000   2.263   0.000   0.000   5.959

                      1
                     SG
 Frequencies --   4084.8405
 Red. masses --      1.0583
 Frc consts  --     10.4043
 IR Inten    --     61.0544

 - Thermochemistry -
 -------------------
 Temperature   298.150 Kelvin.  Pressure   1.00000 Atm.
 Atom     1 has atomic number  9 and mass  18.99840

 Molecular mass:    20.00623 amu.
 Principal axes and moments of inertia in atomic units:
                           1         2         3
     Eigenvalues --     0.00000   2.92680   2.92680
           X            0.00000   0.00000   1.00000
           Y            0.00000   1.00000   0.00000
           Z            1.00000   0.00000   0.00000
 This molecule is a prolate symmetric top.
 Rotational symmetry number  1.
 Rotational temperature (Kelvin)     29.59339
 Rotational constant (GHZ):         616.626918
 Zero-point vibrational energy      24432.8 (Joules/Mol)
                                    5.83957 (Kcal/Mol)
 Vibrational temperatures:   5877.17
          (Kelvin)

 Zero-point correction=                           0.009306 (Hartree/Particle)
 Thermal correction to Energy=                    0.011666
 Thermal correction to Enthalpy=                  0.012611
 Thermal correction to Gibbs Free Energy=        -0.007107
 Sum of electronic and zero-point Energies=           -100.418336
 Sum of electronic and thermal Energies=              -100.415975
 Sum of electronic and thermal Enthalpies=            -100.415031
 Sum of electronic and thermal Free Energies=         -100.434749

                     E (Thermal)             CV                S
                      KCal/Mol        Cal/Mol-Kelvin    Cal/Mol-Kelvin
 Total                    7.321              4.968             41.499
 Electronic               0.000              0.000              0.000
 Translational            0.889              2.981             34.922
 Rotational               0.592              1.987              6.578
 Vibrational              5.840              0.000              0.000

 Optimization completed.
    -- Stationary point found.
 Normal termination of Gaussian 09 at Thu Nov  2 15:31:13 2023.
