 Gaussian 09, Revision D.01,
 Gaussian 09:  EM64L-G09RevD.01 24-Apr-2013

 -------------------------------------------------
 # opt=maxcycle=100 freq B3LYP/6-31G(d,p) em=gd3bj
 -------------------------------------------------

 ------------------------
 Calculated hydrogen bond
 ------------------------
 Symbolic Z-matrix:
 Charge =  0 Multiplicity = 1

 SCF Done:  E(RB3LYP) =  -176.860368818     A.U. after   10 cycles
 SCF Done:  E(RB3LYP) =  -176.864735305     A.U. after   11 cycles
 SCF Done:  E(RB3LYP) =  -176.865175029     A.U. after   11 cycles
 SCF Done:  E(RB3LYP) =  -176.865481159     A.U. after   11 cycles
 SCF Done:  E(RB3LYP) =  -176.865815720     A.U. after   11 cycles
 SCF Done:  E(RB3LYP) =  -176.866287624     A.U. after   11 cycles
 SCF Done:  E(RB3LYP) =  -176.866671710     A.U. after   11 cycles
 SCF Done:  E(RB3LYP) =  -176.866879583     A.U. after    9 cycles
 SCF Done:  E(RB3LYP) =  -176.866942754     A.U. after    9 cycles
 SCF Done:  E(RB3LYP) =  -176.866958406     A.U. after    8 cycles
 SCF Done:  E(RB3LYP) =  -176.866964612     A.U. after    8 cycles
 SCF Done:  E(RB3LYP) =  -176.866967706     A.U. after    8 cycles
 SCF Done:  E(RB3LYP) =  -176.866970016     A.U. after    8 cycles
 SCF Done:  E(RB3LYP) =  -176.866972638     A.U. after    8 cycles
 SCF Done:  E(RB3LYP) =  -176.866975359     A.U. after    8 cycles
 SCF Done:  E(RB3LYP) =  -176.866977219     A.U. after    8 cycles
 Optimization completed.
    -- Stationary point found.
 Normal termination of Gaussian 09 at Thu Nov  2 14:55:36 2023.

 ----------------------------------------------------------------------
 #N Geom=AllCheck Guess=TCheck SCRF=Check GenChk RB3LYP/6-31G(d,p) Freq
 ----------------------------------------------------------------------

 Structure from the checkpoint file:  "waterH.chk"
 ------------------------
 Calculated hydrogen bond
 ------------------------
 Charge =  0 Multiplicity = 1

                         Standard orientation:
 ---------------------------------------------------------------------
 Center     Atomic      Atomic             Coordinates (Angstroms)
 Number     Number       Type             X           Y           Z
 ---------------------------------------------------------------------
      1          8           0        1.253900    0.000022   -0.110976
      2          1           0        1.466769   -0.765996    0.439091
      3          1           0        1.467717    0.765642    0.439262
      4          9           0       -1.388709    0.000042    0.020635
      5          1           0       -0.467308   -0.000207   -0.176266
 ---------------------------------------------------------------------

 SCF Done:  E(RB3LYP) =  -176.866977219     A.U. after    1 cycles

 The electronic state is 1-A.
 Alpha  occ. eigenvalues --  -24.60803 -19.19589  -1.11527  -1.05192  -0.56826
 Alpha  occ. eigenvalues --   -0.48406  -0.42019  -0.34842  -0.32968  -0.32801
 Alpha virt. eigenvalues --    0.02906   0.11695   0.21065   0.71240   0.74875
 Alpha virt. eigenvalues --    0.79089   0.83763   0.95988   0.97803   1.13333
 Alpha virt. eigenvalues --    1.19324   1.22171   1.26301   1.46905   1.48032

 Mulliken charges:
               1
     1  O   -0.594619
     2  H    0.333299
     3  H    0.333309
     4  F   -0.430428
     5  H    0.358439
 Sum of Mulliken charges =   0.00000

 Dipole moment (field-independent basis, Debye):
    X=              3.4619    Y=             -0.0010    Z=              1.5909  Tot=              3.8100
 Quadrupole moment (field-independent basis, Debye-Ang):
   XX=            -13.1152   YY=             -9.4728   ZZ=            -11.3885
   XY=              0.0011   XZ=              3.1193   YZ=              0.0001

  Exact polarizability:  11.165   0.002   9.054   0.831   0.000   7.006
 Approx polarizability:  12.334   0.002  11.116   0.721   0.000   8.627

                      1                      2                      3
                      A                      A                      A
 Frequencies --    178.8904               199.9538               291.1172
 Red. masses --      1.0367                 1.3639                 3.5339
 Frc consts  --      0.0195                 0.0321                 0.1765
 IR Inten    --     14.9672               139.2756               158.6005

                      4                      5                      6
                      A                      A                      A
 Frequencies --    730.2440               830.3638              1654.0401
 Red. masses --      1.0507                 1.0395                 1.0821
 Frc consts  --      0.3301                 0.4223                 1.7443
 IR Inten    --    163.9479               126.8285                79.6749

                      7                      8                      9
                      A                      A                      A
 Frequencies --   3722.5583              3796.5130              3902.7092
 Red. masses --      1.0587                 1.0452                 1.0818
 Frc consts  --      8.6442                 8.8761                 9.7079
 IR Inten    --    671.0248                20.6881                62.4959

 - Thermochemistry -
 -------------------
 Temperature   298.150 Kelvin.  Pressure   1.00000 Atm.
 Atom     1 has atomic number  8 and mass  15.99491

 Molecular mass:    38.01679 amu.
 Principal axes and moments of inertia in atomic units:
                           1         2         3
     Eigenvalues --     6.29524 237.73093 239.87866
           X            0.99975   0.00000   0.02227
           Y            0.00000   1.00000   0.00001
           Z           -0.02227  -0.00001   0.99975
 This molecule is an asymmetric top.
 Rotational symmetry number  1.
 Rotational temperatures (Kelvin)     13.75863     0.36434     0.36107
 Rotational constants (GHZ):         286.68358     7.59153     7.52356
 Zero-point vibrational energy      91552.5 (Joules/Mol)
                                   21.88158 (Kcal/Mol)
 Warning -- explicit consideration of   3 degrees of freedom as
           vibrations may cause significant error
 Vibrational temperatures:    257.38   287.69   418.85  1050.66  1194.71
          (Kelvin)           2379.79  5355.92  5462.33  5615.12

 Zero-point correction=                           0.034871 (Hartree/Particle)
 Thermal correction to Energy=                    0.039464
 Thermal correction to Enthalpy=                  0.040408
 Thermal correction to Gibbs Free Energy=         0.010118
 Sum of electronic and zero-point Energies=           -176.832107
 Sum of electronic and thermal Energies=              -176.827514
 Sum of electronic and thermal Enthalpies=            -176.826569
 Sum of electronic and thermal Free Energies=         -176.856859

                     E (Thermal)             CV                S
                      KCal/Mol        Cal/Mol-Kelvin    Cal/Mol-Kelvin
 Total                   24.764             12.778             63.751
 Electronic               0.000              0.000              0.000
 Translational            0.889              2.981             36.835
 Rotational               0.889              2.981             20.512
 Vibrational             22.986              6.816              6.403
 Vibration     1          0.629              1.868              2.340
 Vibration     2          0.638              1.840              2.134
 Vibration     3          0.687              1.690              1.467

 Optimization completed.
    -- Stationary point found.
 Normal termination of Gaussian 09 at Thu Nov  2 14:55:40 2023.
